<?xml version="1.0" encoding="UTF-8"?>

<!-- generated on 2025-06-08 23:59:46 by Eclipse SUMO GUI Version 1.19.0
<configuration xmlns:xsi="http://www.w3.org/2001/XMLSchema-instance" xsi:noNamespaceSchemaLocation="http://sumo.dlr.de/xsd/sumoConfiguration.xsd">

    <input>
        <net-file value="Network_2Sided.net.xml"/>
        <route-files value="Demand_other_origin.rou.xml"/>
        <additional-files value="Sensors.add.xml,Sensors_withlog.add.xml,edge_logging.xml"/>
    </input>

    <output>
        <summary-output value="logs/Log_summary.xml"/>
        <summary-output.period value="300"/>
        <tripinfo-output value="logs/TripInfos.xml"/>
    </output>

    <time>
        <begin value="0"/>
        <end value="10800"/>
        <step-length value="1"/>
    </time>

    <processing>
        <time-to-teleport value="-1"/>
    </processing>

    <report>
        <verbose value="true"/>
        <no-step-log value="true"/>
    </report>

    <emissions>
        <device.emissions.period value="10"/>
    </emissions>

    <traci_server>
        <remote-port value="65396"/>
    </traci_server>

    <gui_only>
        <quit-on-end value="true"/>
        <start value="true"/>
    </gui_only>

</configuration>
-->

<tripinfos xmlns:xsi="http://www.w3.org/2001/XMLSchema-instance" xsi:noNamespaceSchemaLocation="http://sumo.dlr.de/xsd/tripinfo_file.xsd">
    <tripinfo id="flow_0_car_aggr3_route_E5_AEnd_lane0.0" depart="0.00" departLane="114320572_0" departPos="5.10" departSpeed="0.00" departDelay="0.00" arrival="64.00" arrivalLane="34211542_0" arrivalPos="632.08" arrivalSpeed="18.17" duration="64.00" routeLength="972.66" waitingTime="0.00" waitingCount="0" stopTime="0.00" timeLoss="5.15" rerouteNo="0" devices="tripinfo_flow_0_car_aggr3_route_E5_AEnd_lane0.0" vType="car_aggr3" speedFactor="0.84" vaporized=""/>
    <tripinfo id="flow_0_mot_aggr1_route_E5_AEnd_lane0.0" depart="15.00" departLane="114320572_0" departPos="2.30" departSpeed="0.00" departDelay="0.00" arrival="76.00" arrivalLane="34211542_0" arrivalPos="632.08" arrivalSpeed="19.62" duration="61.00" routeLength="975.46" waitingTime="0.00" waitingCount="0" stopTime="0.00" timeLoss="5.64" rerouteNo="0" devices="tripinfo_flow_0_mot_aggr1_route_E5_AEnd_lane0.0" vType="mot_aggr1" speedFactor="0.90" vaporized=""/>
    <tripinfo id="flow_0_car_aggr2_route_E5_AEnd_lane0.0" depart="19.00" departLane="114320572_0" departPos="5.10" departSpeed="0.00" departDelay="0.00" arrival="83.00" arrivalLane="34211542_0" arrivalPos="632.08" arrivalSpeed="17.73" duration="64.00" routeLength="972.66" waitingTime="0.00" waitingCount="0" stopTime="0.00" timeLoss="5.94" rerouteNo="0" devices="tripinfo_flow_0_car_aggr2_route_E5_AEnd_lane0.0" vType="car_aggr2" speedFactor="0.85" vaporized=""/>
    <tripinfo id="flow_0_car_aggr5_route_E5_AEnd_lane0.0" depart="26.00" departLane="114320572_0" departPos="5.10" departSpeed="0.00" departDelay="0.00" arrival="83.00" arrivalLane="34211542_1" arrivalPos="632.08" arrivalSpeed="20.40" duration="57.00" routeLength="972.66" waitingTime="0.00" waitingCount="0" stopTime="0.00" timeLoss="6.01" rerouteNo="0" devices="tripinfo_flow_0_car_aggr5_route_E5_AEnd_lane0.0" vType="car_aggr5" speedFactor="0.98" vaporized=""/>
    <tripinfo id="flow_0_car_aggr3_route_E4_A5_lane0.0" depart="11.00" departLane="113980043_0" departPos="5.10" departSpeed="0.00" departDelay="2.00" arrival="86.00" arrivalLane="33212385_0" arrivalPos="71.26" arrivalSpeed="12.79" duration="75.00" routeLength="969.13" waitingTime="0.00" waitingCount="0" stopTime="0.00" timeLoss="24.69" rerouteNo="0" devices="tripinfo_flow_0_car_aggr3_route_E4_A5_lane0.0" vType="car_aggr3" speedFactor="1.00" vaporized=""/>
    <tripinfo id="flow_0_car_aggr2_route_E3_A4_lane0.0" depart="7.00" departLane="-E13_0" departPos="5.10" departSpeed="0.00" departDelay="0.00" arrival="99.00" arrivalLane="107041762_0" arrivalPos="167.06" arrivalSpeed="12.63" duration="92.00" routeLength="1193.25" waitingTime="0.00" waitingCount="0" stopTime="0.00" timeLoss="10.41" rerouteNo="0" devices="tripinfo_flow_0_car_aggr2_route_E3_A4_lane0.0" vType="car_aggr2" speedFactor="0.96" vaporized=""/>
    <tripinfo id="flow_0_car_aggr2_route_E5_AEnd_lane0.1" depart="29.00" departLane="114320572_0" departPos="5.10" departSpeed="0.00" departDelay="0.00" arrival="103.00" arrivalLane="34211542_0" arrivalPos="632.08" arrivalSpeed="15.58" duration="74.00" routeLength="972.66" waitingTime="0.00" waitingCount="0" stopTime="0.00" timeLoss="6.22" rerouteNo="0" devices="tripinfo_flow_0_car_aggr2_route_E5_AEnd_lane0.1" vType="car_aggr2" speedFactor="0.73" vaporized=""/>
    <tripinfo id="flow_0_car_aggr2_route_E5_AEnd_lane0.2" depart="49.00" departLane="114320572_0" departPos="5.10" departSpeed="0.00" departDelay="0.00" arrival="107.00" arrivalLane="34211542_1" arrivalPos="632.08" arrivalSpeed="20.34" duration="58.00" routeLength="972.66" waitingTime="0.00" waitingCount="0" stopTime="0.00" timeLoss="5.78" rerouteNo="0" devices="tripinfo_flow_0_car_aggr2_route_E5_AEnd_lane0.2" vType="car_aggr2" speedFactor="0.94" vaporized=""/>
    <tripinfo id="flow_0_car_aggr4_route_E4b_AEnd_lane1.0" depart="3.00" departLane="134575595#3_1" departPos="5.10" departSpeed="0.00" departDelay="2.00" arrival="122.00" arrivalLane="34211542_1" arrivalPos="632.08" arrivalSpeed="19.49" duration="119.00" routeLength="2023.63" waitingTime="0.00" waitingCount="0" stopTime="0.00" timeLoss="9.78" rerouteNo="0" devices="tripinfo_flow_0_car_aggr4_route_E4b_AEnd_lane1.0" vType="car_aggr4" speedFactor="0.89" vaporized=""/>
    <tripinfo id="flow_0_car_aggr3_route_E3_A4_lane0.0" depart="19.00" departLane="-E13_0" departPos="5.10" departSpeed="0.00" departDelay="0.00" arrival="124.00" arrivalLane="107041762_0" arrivalPos="167.06" arrivalSpeed="10.51" duration="105.00" routeLength="1193.25" waitingTime="0.00" waitingCount="0" stopTime="0.00" timeLoss="8.88" rerouteNo="0" devices="tripinfo_flow_0_car_aggr3_route_E3_A4_lane0.0" vType="car_aggr3" speedFactor="0.81" vaporized=""/>
    <tripinfo id="flow_0_car_aggr2_route_E5_AEnd_lane0.3" depart="52.00" departLane="114320572_0" departPos="5.10" departSpeed="0.00" departDelay="2.00" arrival="125.00" arrivalLane="34211542_0" arrivalPos="632.08" arrivalSpeed="15.95" duration="73.00" routeLength="972.66" waitingTime="0.00" waitingCount="0" stopTime="0.00" timeLoss="6.98" rerouteNo="0" devices="tripinfo_flow_0_car_aggr2_route_E5_AEnd_lane0.3" vType="car_aggr2" speedFactor="0.75" vaporized=""/>
    <tripinfo id="flow_0_car_aggr4_route_E3_A4_lane0.0" depart="26.00" departLane="-E13_0" departPos="5.10" departSpeed="0.00" departDelay="0.00" arrival="128.00" arrivalLane="107041762_0" arrivalPos="167.06" arrivalSpeed="14.11" duration="102.00" routeLength="1193.25" waitingTime="0.00" waitingCount="0" stopTime="0.00" timeLoss="29.75" rerouteNo="0" devices="tripinfo_flow_0_car_aggr4_route_E3_A4_lane0.0" vType="car_aggr4" speedFactor="1.07" vaporized=""/>
    <tripinfo id="flow_0_car_aggr5_route_E4b_AEnd_lane1.0" depart="0.00" departLane="134575595#3_1" departPos="5.10" departSpeed="0.00" departDelay="0.00" arrival="129.00" arrivalLane="34211542_2" arrivalPos="632.08" arrivalSpeed="16.83" duration="129.00" routeLength="2023.63" waitingTime="0.00" waitingCount="0" stopTime="0.00" timeLoss="9.60" rerouteNo="0" devices="tripinfo_flow_0_car_aggr5_route_E4b_AEnd_lane1.0" vType="car_aggr5" speedFactor="0.82" vaporized=""/>
    <tripinfo id="flow_0_car_aggr2_route_E5_AEnd_lane0.4" depart="58.00" departLane="114320572_0" departPos="5.10" departSpeed="0.00" departDelay="0.00" arrival="130.00" arrivalLane="34211542_1" arrivalPos="632.08" arrivalSpeed="17.79" duration="72.00" routeLength="972.66" waitingTime="0.00" waitingCount="0" stopTime="0.00" timeLoss="20.93" rerouteNo="0" devices="tripinfo_flow_0_car_aggr2_route_E5_AEnd_lane0.4" vType="car_aggr2" speedFactor="0.97" vaporized=""/>
    <tripinfo id="flow_0_car_aggr5_route_E1_A2_lane2.0" depart="25.00" departLane="29380609_2" departPos="5.10" departSpeed="0.00" departDelay="23.00" arrival="133.00" arrivalLane="A2_0" arrivalPos="11.08" arrivalSpeed="16.95" duration="108.00" routeLength="1445.38" waitingTime="0.00" waitingCount="0" stopTime="0.00" timeLoss="52.00" rerouteNo="0" devices="tripinfo_flow_0_car_aggr5_route_E1_A2_lane2.0" vType="car_aggr5" speedFactor="1.27" vaporized=""/>
    <tripinfo id="flow_0_car_aggr3_route_E4b_AEnd_lane1.1" depart="16.00" departLane="134575595#3_1" departPos="5.10" departSpeed="0.00" departDelay="0.00" arrival="133.00" arrivalLane="34211542_2" arrivalPos="632.08" arrivalSpeed="20.58" duration="117.00" routeLength="2023.63" waitingTime="0.00" waitingCount="0" stopTime="0.00" timeLoss="17.40" rerouteNo="0" devices="tripinfo_flow_0_car_aggr3_route_E4b_AEnd_lane1.1" vType="car_aggr3" speedFactor="0.98" vaporized=""/>
    <tripinfo id="sample_flow_E2_A3.0" depart="0.00" departLane="E18_0" departPos="5.10" departSpeed="0.00" departDelay="0.00" arrival="134.00" arrivalLane="A3_0" arrivalPos="8.82" arrivalSpeed="12.19" duration="134.00" routeLength="1649.35" waitingTime="0.00" waitingCount="0" stopTime="0.00" timeLoss="15.51" rerouteNo="0" devices="tripinfo_sample_flow_E2_A3.0" vType="car_aggr3" speedFactor="0.91" vaporized=""/>
    <tripinfo id="flow_0_car_aggr3_route_E4b_AEnd_lane1.0" depart="6.00" departLane="134575595#3_1" departPos="5.10" departSpeed="0.00" departDelay="2.00" arrival="138.00" arrivalLane="34211542_1" arrivalPos="632.08" arrivalSpeed="17.87" duration="132.00" routeLength="2023.63" waitingTime="0.00" waitingCount="0" stopTime="0.00" timeLoss="12.04" rerouteNo="0" devices="tripinfo_flow_0_car_aggr3_route_E4b_AEnd_lane1.0" vType="car_aggr3" speedFactor="0.81" vaporized=""/>
    <tripinfo id="flow_0_mot_aggr2_route_E5_AEnd_lane0.0" depart="79.00" departLane="114320572_0" departPos="2.30" departSpeed="0.00" departDelay="0.00" arrival="141.00" arrivalLane="34211542_2" arrivalPos="632.08" arrivalSpeed="19.15" duration="62.00" routeLength="975.46" waitingTime="0.00" waitingCount="0" stopTime="0.00" timeLoss="6.17" rerouteNo="0" devices="tripinfo_flow_0_mot_aggr2_route_E5_AEnd_lane0.0" vType="mot_aggr2" speedFactor="0.90" vaporized=""/>
    <tripinfo id="flow_0_car_aggr4_route_E1_A1_lane1.0" depart="97.00" departLane="29380609_1" departPos="5.10" departSpeed="0.00" departDelay="93.00" arrival="143.00" arrivalLane="A1_0" arrivalPos="11.57" arrivalSpeed="18.18" duration="46.00" routeLength="523.80" waitingTime="2.00" waitingCount="2" stopTime="0.00" timeLoss="20.43" rerouteNo="0" devices="tripinfo_flow_0_car_aggr4_route_E1_A1_lane1.0" vType="car_aggr4" speedFactor="1.15" vaporized=""/>
    <tripinfo id="flow_0_car_aggr5_route_E4_AEnd_lane0.0" depart="17.00" departLane="113980043_0" departPos="5.10" departSpeed="0.00" departDelay="0.00" arrival="143.00" arrivalLane="34211542_2" arrivalPos="632.08" arrivalSpeed="22.19" duration="126.00" routeLength="2452.98" waitingTime="0.00" waitingCount="0" stopTime="0.00" timeLoss="16.35" rerouteNo="0" devices="tripinfo_flow_0_car_aggr5_route_E4_AEnd_lane0.0" vType="car_aggr5" speedFactor="1.04" vaporized=""/>
    <tripinfo id="flow_0_car_aggr4_route_E4b_AEnd_lane1.1" depart="23.00" departLane="134575595#3_1" departPos="5.10" departSpeed="0.00" departDelay="2.00" arrival="144.00" arrivalLane="34211542_1" arrivalPos="632.08" arrivalSpeed="20.35" duration="121.00" routeLength="2023.63" waitingTime="0.00" waitingCount="0" stopTime="0.00" timeLoss="19.68" rerouteNo="0" devices="tripinfo_flow_0_car_aggr4_route_E4b_AEnd_lane1.1" vType="car_aggr4" speedFactor="0.96" vaporized=""/>
    <tripinfo id="flow_0_car_aggr5_route_E3_A4_lane0.0" depart="38.00" departLane="-E13_0" departPos="5.10" departSpeed="0.00" departDelay="0.00" arrival="144.00" arrivalLane="107041762_0" arrivalPos="167.06" arrivalSpeed="13.60" duration="106.00" routeLength="1193.25" waitingTime="1.00" waitingCount="1" stopTime="0.00" timeLoss="27.66" rerouteNo="0" devices="tripinfo_flow_0_car_aggr5_route_E3_A4_lane0.0" vType="car_aggr5" speedFactor="1.00" vaporized=""/>
    <tripinfo id="flow_0_car_aggr1_route_E5_AEnd_lane0.0" depart="61.00" departLane="114320572_0" departPos="5.10" departSpeed="0.00" departDelay="1.00" arrival="144.00" arrivalLane="34211542_0" arrivalPos="632.08" arrivalSpeed="13.92" duration="83.00" routeLength="972.66" waitingTime="0.00" waitingCount="0" stopTime="0.00" timeLoss="8.44" rerouteNo="0" devices="tripinfo_flow_0_car_aggr1_route_E5_AEnd_lane0.0" vType="car_aggr1" speedFactor="0.66" vaporized=""/>
    <tripinfo id="flow_0_car_aggr2_route_E5_AEnd_lane0.5" depart="82.00" departLane="114320572_0" departPos="5.10" departSpeed="0.00" departDelay="0.00" arrival="150.00" arrivalLane="34211542_1" arrivalPos="632.08" arrivalSpeed="18.46" duration="68.00" routeLength="972.66" waitingTime="0.00" waitingCount="0" stopTime="0.00" timeLoss="10.50" rerouteNo="0" devices="tripinfo_flow_0_car_aggr2_route_E5_AEnd_lane0.5" vType="car_aggr2" speedFactor="0.86" vaporized=""/>
    <tripinfo id="flow_0_car_aggr4_route_E3_A4_lane0.1" depart="62.00" departLane="-E13_0" departPos="5.10" departSpeed="0.00" departDelay="0.00" arrival="153.00" arrivalLane="107041762_0" arrivalPos="167.06" arrivalSpeed="14.49" duration="91.00" routeLength="1193.25" waitingTime="0.00" waitingCount="0" stopTime="0.00" timeLoss="20.01" rerouteNo="0" devices="tripinfo_flow_0_car_aggr4_route_E3_A4_lane0.1" vType="car_aggr4" speedFactor="1.10" vaporized=""/>
    <tripinfo id="flow_0_car_aggr1_route_E5_AEnd_lane0.1" depart="85.00" departLane="114320572_0" departPos="5.10" departSpeed="0.00" departDelay="1.00" arrival="159.00" arrivalLane="34211542_0" arrivalPos="632.08" arrivalSpeed="16.27" duration="74.00" routeLength="972.66" waitingTime="0.00" waitingCount="0" stopTime="0.00" timeLoss="8.25" rerouteNo="0" devices="tripinfo_flow_0_car_aggr1_route_E5_AEnd_lane0.1" vType="car_aggr1" speedFactor="0.76" vaporized=""/>
    <tripinfo id="flow_0_car_aggr3_route_E4_AEnd_lane0.0" depart="7.00" departLane="113980043_0" departPos="5.10" departSpeed="0.00" departDelay="3.00" arrival="162.00" arrivalLane="34211542_2" arrivalPos="632.08" arrivalSpeed="17.41" duration="155.00" routeLength="2452.98" waitingTime="1.00" waitingCount="1" stopTime="0.00" timeLoss="12.47" rerouteNo="0" devices="tripinfo_flow_0_car_aggr3_route_E4_AEnd_lane0.0" vType="car_aggr3" speedFactor="0.81" vaporized=""/>
    <tripinfo id="flow_0_car_aggr5_route_E2_A4_lane0.0" depart="4.00" departLane="-E23_0" departPos="5.10" departSpeed="0.00" departDelay="0.00" arrival="165.00" arrivalLane="107041762_0" arrivalPos="167.06" arrivalSpeed="12.21" duration="161.00" routeLength="2355.30" waitingTime="1.00" waitingCount="1" stopTime="0.00" timeLoss="23.74" rerouteNo="0" devices="tripinfo_flow_0_car_aggr5_route_E2_A4_lane0.0" vType="car_aggr5" speedFactor="0.98" vaporized=""/>
    <tripinfo id="flow_0_car_aggr2_route_E4b_AEnd_lane1.0" depart="27.00" departLane="134575595#3_1" departPos="5.10" departSpeed="0.00" departDelay="4.00" arrival="167.00" arrivalLane="34211542_2" arrivalPos="632.08" arrivalSpeed="18.30" duration="140.00" routeLength="2023.63" waitingTime="0.00" waitingCount="0" stopTime="0.00" timeLoss="23.52" rerouteNo="0" devices="tripinfo_flow_0_car_aggr2_route_E4b_AEnd_lane1.0" vType="car_aggr2" speedFactor="0.83" vaporized=""/>
    <tripinfo id="flow_0_mot_aggr4_route_E3_A5_lane0.0" depart="2.00" departLane="-E12_0" departPos="2.30" departSpeed="0.00" departDelay="0.00" arrival="168.00" arrivalLane="33212385_0" arrivalPos="71.26" arrivalSpeed="9.33" duration="166.00" routeLength="2502.69" waitingTime="0.00" waitingCount="0" stopTime="0.00" timeLoss="15.50" rerouteNo="0" devices="tripinfo_flow_0_mot_aggr4_route_E3_A5_lane0.0" vType="mot_aggr4" speedFactor="0.85" vaporized=""/>
    <tripinfo id="flow_0_car_aggr1_route_E4b_AEnd_lane1.0" depart="19.00" departLane="134575595#3_1" departPos="5.10" departSpeed="0.00" departDelay="2.00" arrival="168.00" arrivalLane="34211542_0" arrivalPos="632.08" arrivalSpeed="15.41" duration="149.00" routeLength="2023.63" waitingTime="0.00" waitingCount="0" stopTime="0.00" timeLoss="9.27" rerouteNo="0" devices="tripinfo_flow_0_car_aggr1_route_E4b_AEnd_lane1.0" vType="car_aggr1" speedFactor="0.70" vaporized=""/>
    <tripinfo id="flow_0_car_aggr1_route_E4b_AEnd_lane1.1" depart="34.00" departLane="134575595#3_1" departPos="5.10" departSpeed="0.00" departDelay="0.00" arrival="168.00" arrivalLane="34211542_1" arrivalPos="632.08" arrivalSpeed="16.10" duration="134.00" routeLength="2023.63" waitingTime="2.00" waitingCount="1" stopTime="0.00" timeLoss="27.41" rerouteNo="0" devices="tripinfo_flow_0_car_aggr1_route_E4b_AEnd_lane1.1" vType="car_aggr1" speedFactor="0.91" vaporized=""/>
    <tripinfo id="flow_0_car_aggr4_route_E4b_AEnd_lane1.2" depart="47.00" departLane="134575595#3_1" departPos="5.10" departSpeed="0.00" departDelay="6.00" arrival="170.00" arrivalLane="34211542_2" arrivalPos="632.08" arrivalSpeed="22.65" duration="123.00" routeLength="2023.63" waitingTime="0.00" waitingCount="0" stopTime="0.00" timeLoss="28.90" rerouteNo="0" devices="tripinfo_flow_0_car_aggr4_route_E4b_AEnd_lane1.2" vType="car_aggr4" speedFactor="1.03" vaporized=""/>
    <tripinfo id="flow_0_car_aggr1_route_E5_AEnd_lane0.2" depart="89.00" departLane="114320572_0" departPos="5.10" departSpeed="0.00" departDelay="4.00" arrival="173.00" arrivalLane="34211542_0" arrivalPos="632.08" arrivalSpeed="16.37" duration="84.00" routeLength="972.66" waitingTime="0.00" waitingCount="0" stopTime="0.00" timeLoss="18.58" rerouteNo="0" devices="tripinfo_flow_0_car_aggr1_route_E5_AEnd_lane0.2" vType="car_aggr1" speedFactor="0.76" vaporized=""/>
    <tripinfo id="flow_0_car_aggr2_route_E5_AEnd_lane0.6" depart="101.00" departLane="114320572_0" departPos="5.10" departSpeed="0.00" departDelay="0.00" arrival="173.00" arrivalLane="34211542_1" arrivalPos="632.08" arrivalSpeed="16.73" duration="72.00" routeLength="972.66" waitingTime="0.00" waitingCount="0" stopTime="0.00" timeLoss="9.06" rerouteNo="0" devices="tripinfo_flow_0_car_aggr2_route_E5_AEnd_lane0.6" vType="car_aggr2" speedFactor="0.78" vaporized=""/>
    <tripinfo id="flow_0_car_aggr4_route_E4_AEnd_lane0.0" depart="46.00" departLane="113980043_0" departPos="5.10" departSpeed="0.00" departDelay="0.00" arrival="175.00" arrivalLane="34211542_2" arrivalPos="632.08" arrivalSpeed="21.12" duration="129.00" routeLength="2452.98" waitingTime="0.00" waitingCount="0" stopTime="0.00" timeLoss="8.40" rerouteNo="0" devices="tripinfo_flow_0_car_aggr4_route_E4_AEnd_lane0.0" vType="car_aggr4" speedFactor="0.96" vaporized=""/>
    <tripinfo id="flow_0_car_aggr3_route_E1_A2_lane1.0" depart="48.00" departLane="29380609_1" departPos="5.10" departSpeed="0.00" departDelay="46.00" arrival="176.00" arrivalLane="A2_0" arrivalPos="11.08" arrivalSpeed="11.17" duration="128.00" routeLength="1445.38" waitingTime="0.00" waitingCount="0" stopTime="0.00" timeLoss="42.32" rerouteNo="0" devices="tripinfo_flow_0_car_aggr3_route_E1_A2_lane1.0" vType="car_aggr3" speedFactor="0.83" vaporized=""/>
    <tripinfo id="flow_0_car_aggr5_route_E4_AEnd_lane0.2" depart="58.00" departLane="113980043_0" departPos="5.10" departSpeed="0.00" departDelay="2.00" arrival="177.00" arrivalLane="34211542_2" arrivalPos="632.08" arrivalSpeed="22.59" duration="119.00" routeLength="2452.98" waitingTime="0.00" waitingCount="0" stopTime="0.00" timeLoss="13.16" rerouteNo="0" devices="tripinfo_flow_0_car_aggr5_route_E4_AEnd_lane0.2" vType="car_aggr5" speedFactor="1.08" vaporized=""/>
    <tripinfo id="flow_0_car_aggr2_route_E4b_AEnd_lane1.1" depart="37.00" departLane="134575595#3_1" departPos="5.10" departSpeed="0.00" departDelay="3.00" arrival="178.00" arrivalLane="34211542_0" arrivalPos="632.08" arrivalSpeed="18.80" duration="141.00" routeLength="2023.63" waitingTime="0.00" waitingCount="0" stopTime="0.00" timeLoss="28.51" rerouteNo="0" devices="tripinfo_flow_0_car_aggr2_route_E4b_AEnd_lane1.1" vType="car_aggr2" speedFactor="0.86" vaporized=""/>
    <tripinfo id="flow_0_mot_aggr2_route_E1_A2_lane3.0" depart="59.00" departLane="29380609_3" departPos="2.30" departSpeed="0.00" departDelay="54.00" arrival="180.00" arrivalLane="A2_0" arrivalPos="11.08" arrivalSpeed="11.24" duration="121.00" routeLength="1448.18" waitingTime="0.00" waitingCount="0" stopTime="0.00" timeLoss="43.46" rerouteNo="0" devices="tripinfo_flow_0_mot_aggr2_route_E1_A2_lane3.0" vType="mot_aggr2" speedFactor="0.92" vaporized=""/>
    <tripinfo id="flow_0_car_aggr1_route_E4_AEnd_lane0.0" depart="4.00" departLane="113980043_0" departPos="5.10" departSpeed="0.00" departDelay="0.00" arrival="181.00" arrivalLane="34211542_1" arrivalPos="632.08" arrivalSpeed="15.60" duration="177.00" routeLength="2452.98" waitingTime="0.00" waitingCount="0" stopTime="0.00" timeLoss="14.31" rerouteNo="0" devices="tripinfo_flow_0_car_aggr1_route_E4_AEnd_lane0.0" vType="car_aggr1" speedFactor="0.71" vaporized=""/>
    <tripinfo id="flow_0_car_aggr1_route_E4b_AEnd_lane1.3" depart="51.00" departLane="134575595#3_1" departPos="5.10" departSpeed="0.00" departDelay="9.00" arrival="184.00" arrivalLane="34211542_2" arrivalPos="632.08" arrivalSpeed="19.14" duration="133.00" routeLength="2023.63" waitingTime="1.00" waitingCount="1" stopTime="0.00" timeLoss="24.71" rerouteNo="0" devices="tripinfo_flow_0_car_aggr1_route_E4b_AEnd_lane1.3" vType="car_aggr1" speedFactor="0.90" vaporized=""/>
    <tripinfo id="flow_0_car_aggr5_route_E4_AEnd_lane0.1" depart="49.00" departLane="113980043_0" departPos="5.10" departSpeed="0.00" departDelay="0.00" arrival="187.00" arrivalLane="34211542_2" arrivalPos="632.08" arrivalSpeed="18.85" duration="138.00" routeLength="2452.98" waitingTime="0.00" waitingCount="0" stopTime="0.00" timeLoss="9.84" rerouteNo="0" devices="tripinfo_flow_0_car_aggr5_route_E4_AEnd_lane0.1" vType="car_aggr5" speedFactor="0.90" vaporized=""/>
    <tripinfo id="flow_0_car_aggr4_route_E4_AEnd_lane0.1" depart="55.00" departLane="113980043_0" departPos="5.10" departSpeed="0.00" departDelay="0.00" arrival="189.00" arrivalLane="34211542_1" arrivalPos="632.08" arrivalSpeed="20.33" duration="134.00" routeLength="2452.98" waitingTime="0.00" waitingCount="0" stopTime="0.00" timeLoss="13.19" rerouteNo="0" devices="tripinfo_flow_0_car_aggr4_route_E4_AEnd_lane0.1" vType="car_aggr4" speedFactor="0.95" vaporized=""/>
    <tripinfo id="sample_flow_E2_A3.1" depart="37.00" departLane="E18_0" departPos="5.10" departSpeed="0.00" departDelay="0.00" arrival="191.00" arrivalLane="A3_0" arrivalPos="8.82" arrivalSpeed="11.01" duration="154.00" routeLength="1649.35" waitingTime="0.00" waitingCount="0" stopTime="0.00" timeLoss="24.06" rerouteNo="0" devices="tripinfo_sample_flow_E2_A3.1" vType="car_aggr3" speedFactor="0.83" vaporized=""/>
    <tripinfo id="flow_0_car_aggr2_route_E5_AEnd_lane0.7" depart="127.00" departLane="114320572_0" departPos="5.10" departSpeed="0.00" departDelay="0.00" arrival="192.00" arrivalLane="34211542_0" arrivalPos="632.08" arrivalSpeed="20.19" duration="65.00" routeLength="972.66" waitingTime="0.00" waitingCount="0" stopTime="0.00" timeLoss="12.72" rerouteNo="0" devices="tripinfo_flow_0_car_aggr2_route_E5_AEnd_lane0.7" vType="car_aggr2" speedFactor="0.94" vaporized=""/>
    <tripinfo id="flow_0_car_aggr5_route_E4b_AEnd_lane1.1" depart="68.00" departLane="134575595#3_1" departPos="5.10" departSpeed="0.00" departDelay="18.00" arrival="194.00" arrivalLane="34211542_2" arrivalPos="632.08" arrivalSpeed="20.76" duration="126.00" routeLength="2023.63" waitingTime="0.00" waitingCount="0" stopTime="0.00" timeLoss="23.47" rerouteNo="0" devices="tripinfo_flow_0_car_aggr5_route_E4b_AEnd_lane1.1" vType="car_aggr5" speedFactor="0.95" vaporized=""/>
    <tripinfo id="sample_flow_E2_A3.2" depart="40.00" departLane="E18_0" departPos="5.10" departSpeed="0.00" departDelay="0.00" arrival="195.00" arrivalLane="A3_0" arrivalPos="8.82" arrivalSpeed="12.32" duration="155.00" routeLength="1649.35" waitingTime="0.00" waitingCount="0" stopTime="0.00" timeLoss="42.27" rerouteNo="0" devices="tripinfo_sample_flow_E2_A3.2" vType="car_aggr3" speedFactor="0.95" vaporized=""/>
    <tripinfo id="flow_0_car_aggr2_route_E1_A4_lane2.0" depart="0.00" departLane="29380609_2" departPos="5.10" departSpeed="0.00" departDelay="0.00" arrival="203.00" arrivalLane="107041762_0" arrivalPos="167.06" arrivalSpeed="12.25" duration="203.00" routeLength="3468.74" waitingTime="0.00" waitingCount="0" stopTime="0.00" timeLoss="28.47" rerouteNo="0" devices="tripinfo_flow_0_car_aggr2_route_E1_A4_lane2.0" vType="car_aggr2" speedFactor="0.92" vaporized=""/>
    <tripinfo id="flow_0_car_aggr1_route_E4b_AEnd_lane1.2" depart="42.00" departLane="134575595#3_1" departPos="5.10" departSpeed="0.00" departDelay="7.00" arrival="203.00" arrivalLane="34211542_0" arrivalPos="632.08" arrivalSpeed="14.45" duration="161.00" routeLength="2023.63" waitingTime="0.00" waitingCount="0" stopTime="0.00" timeLoss="17.94" rerouteNo="0" devices="tripinfo_flow_0_car_aggr1_route_E4b_AEnd_lane1.2" vType="car_aggr1" speedFactor="0.68" vaporized=""/>
    <tripinfo id="flow_0_car_aggr1_route_E4b_AEnd_lane1.4" depart="57.00" departLane="134575595#3_1" departPos="5.10" departSpeed="0.00" departDelay="13.00" arrival="203.00" arrivalLane="34211542_2" arrivalPos="632.08" arrivalSpeed="16.90" duration="146.00" routeLength="2023.63" waitingTime="0.00" waitingCount="0" stopTime="0.00" timeLoss="22.21" rerouteNo="0" devices="tripinfo_flow_0_car_aggr1_route_E4b_AEnd_lane1.4" vType="car_aggr1" speedFactor="0.79" vaporized=""/>
    <tripinfo id="flow_0_car_aggr4_route_E5_AEnd_lane0.0" depart="145.00" departLane="114320572_0" departPos="5.10" departSpeed="0.00" departDelay="0.00" arrival="206.00" arrivalLane="34211542_2" arrivalPos="632.08" arrivalSpeed="22.34" duration="61.00" routeLength="972.66" waitingTime="0.00" waitingCount="0" stopTime="0.00" timeLoss="20.70" rerouteNo="0" devices="tripinfo_flow_0_car_aggr4_route_E5_AEnd_lane0.0" vType="car_aggr4" speedFactor="1.22" vaporized=""/>
    <tripinfo id="flow_0_car_aggr3_route_E1_A1_lane3.0" depart="152.00" departLane="29380609_3" departPos="5.10" departSpeed="0.00" departDelay="138.00" arrival="208.00" arrivalLane="A1_0" arrivalPos="11.57" arrivalSpeed="14.33" duration="56.00" routeLength="523.80" waitingTime="6.00" waitingCount="2" stopTime="0.00" timeLoss="25.65" rerouteNo="0" devices="tripinfo_flow_0_car_aggr3_route_E1_A1_lane3.0" vType="car_aggr3" speedFactor="0.98" vaporized=""/>
    <tripinfo id="flow_0_car_aggr2_route_E4b_AEnd_lane1.2" depart="62.00" departLane="134575595#3_1" departPos="5.10" departSpeed="0.00" departDelay="12.00" arrival="208.00" arrivalLane="34211542_1" arrivalPos="632.08" arrivalSpeed="17.37" duration="146.00" routeLength="2023.63" waitingTime="0.00" waitingCount="0" stopTime="0.00" timeLoss="26.01" rerouteNo="0" devices="tripinfo_flow_0_car_aggr2_route_E4b_AEnd_lane1.2" vType="car_aggr2" speedFactor="0.81" vaporized=""/>
    <tripinfo id="flow_0_car_aggr4_route_E4_AEnd_lane0.2" depart="67.00" departLane="113980043_0" departPos="5.10" departSpeed="0.00" departDelay="0.00" arrival="210.00" arrivalLane="34211542_2" arrivalPos="632.08" arrivalSpeed="18.83" duration="143.00" routeLength="2452.98" waitingTime="0.00" waitingCount="0" stopTime="0.00" timeLoss="13.06" rerouteNo="0" devices="tripinfo_flow_0_car_aggr4_route_E4_AEnd_lane0.2" vType="car_aggr4" speedFactor="0.89" vaporized=""/>
    <tripinfo id="flow_0_mot_aggr5_route_E4_AEnd_lane0.0" depart="75.00" departLane="113980043_0" departPos="2.30" departSpeed="0.00" departDelay="2.00" arrival="212.00" arrivalLane="34211542_2" arrivalPos="632.08" arrivalSpeed="21.86" duration="137.00" routeLength="2455.78" waitingTime="0.00" waitingCount="0" stopTime="0.00" timeLoss="26.10" rerouteNo="0" devices="tripinfo_flow_0_mot_aggr5_route_E4_AEnd_lane0.0" vType="mot_aggr5" speedFactor="1.04" vaporized=""/>
    <tripinfo id="flow_0_car_aggr4_route_E5_AEnd_lane0.1" depart="152.00" departLane="114320572_0" departPos="5.10" departSpeed="0.00" departDelay="0.00" arrival="214.00" arrivalLane="34211542_1" arrivalPos="632.08" arrivalSpeed="21.44" duration="62.00" routeLength="972.66" waitingTime="0.00" waitingCount="0" stopTime="0.00" timeLoss="12.33" rerouteNo="0" devices="tripinfo_flow_0_car_aggr4_route_E5_AEnd_lane0.1" vType="car_aggr4" speedFactor="1.00" vaporized=""/>
    <tripinfo id="flow_0_car_aggr5_route_E3_A4_lane0.1" depart="112.00" departLane="-E13_0" departPos="5.10" departSpeed="0.00" departDelay="0.00" arrival="216.00" arrivalLane="107041762_0" arrivalPos="167.06" arrivalSpeed="10.42" duration="104.00" routeLength="1193.25" waitingTime="0.00" waitingCount="0" stopTime="0.00" timeLoss="10.61" rerouteNo="0" devices="tripinfo_flow_0_car_aggr5_route_E3_A4_lane0.1" vType="car_aggr5" speedFactor="0.84" vaporized=""/>
    <tripinfo id="flow_0_car_aggr2_route_E4_AEnd_lane0.0" depart="73.00" departLane="113980043_0" departPos="5.10" departSpeed="0.00" departDelay="0.00" arrival="221.00" arrivalLane="34211542_2" arrivalPos="632.08" arrivalSpeed="18.26" duration="148.00" routeLength="2452.98" waitingTime="0.00" waitingCount="0" stopTime="0.00" timeLoss="9.08" rerouteNo="0" devices="tripinfo_flow_0_car_aggr2_route_E4_AEnd_lane0.0" vType="car_aggr2" speedFactor="0.83" vaporized=""/>
    <tripinfo id="flow_0_car_aggr1_route_E4b_AEnd_lane1.5" depart="72.00" departLane="134575595#3_1" departPos="5.10" departSpeed="0.00" departDelay="19.00" arrival="223.00" arrivalLane="34211542_0" arrivalPos="632.08" arrivalSpeed="16.27" duration="151.00" routeLength="2023.63" waitingTime="1.00" waitingCount="1" stopTime="0.00" timeLoss="20.10" rerouteNo="0" devices="tripinfo_flow_0_car_aggr1_route_E4b_AEnd_lane1.5" vType="car_aggr1" speedFactor="0.74" vaporized=""/>